LAMMPS (11 Aug 2017)
q
ERROR: Unknown command: q (../input.cpp:247)
Last command: q
